
TITLE     = "DG2D to Tecplot"
VARIABLES = "X", "Y", "RHO", "U" ,"V", "VELOCITY_MAG", "P", "T"
ZONE T="ZONE 1"
ZONETYPE=FEQUADRILATERAL
DATAPACKING=BLOCK
NODES=5466, ELEMENTS=10600
-4.16334e-16 -3.88578e-16 0.6 0.6 -3.88578e-16 0.6 3 3 -3.88578e-16 -3.88578e-16 -3.88578e-16 -3.88578e-16 -3.88578e-16 -3.88578e-16 -3.88578e-16 -3.88578e-16 -3.88578e-16 -3.88578e-16 -3.88578e-16 -3.88578e-16 -3.88578e-16 -3.88578e-16 0.592486 0.584005 0.57443 0.563622 0.551422 0.53765 0.522103 0.504553 0.484743 0.46238 0.437135 0.408639 0.37647 0.340158 0.299166 0.252894 0.20066 0.141696 0.075136 0.6 0.6 0.6 0.6 0.6 0.6 0.6 0.6 0.6 0.6 0.6 0.6 0.6 0.6 0.075136 0.141696 0.20066 0.252894 0.299166 0.340158 0.37647 0.408639 0.437135 0.46238 0.484743 0.504553 0.522103 0.53765 0.551422 0.563622 0.57443 0.584005 0.592486 -3.88578e-16 -3.88578e-16 -3.88578e-16 -3.88578e-16 -3.88578e-16 -3.88578e-16 -3.88578e-16 -3.88578e-16 -3.88578e-16 -3.88578e-16 -3.88578e-16 -3.88578e-16 -3.88578e-16 -3.88578e-16 -3.88578e-16 -3.88578e-16 -3.88578e-16 -3.88578e-16 -3.88578e-16 -3.88578e-16 -3.88578e-16 -3.88578e-16 -3.88578e-16 -3.88578e-16 -3.88578e-16 -3.88578e-16 -3.88578e-16 -3.88578e-16 -3.88578e-16 -3.88578e-16 -3.88578e-16 -3.88578e-16 -3.88578e-16 -3.88578e-16 -3.88578e-16 -3.88578e-16 -3.88578e-16 -3.88578e-16 -3.88578e-16 -3.88578e-16 -3.88578e-16 -3.88578e-16 -3.88578e-16 -3.88578e-16 -3.88578e-16 -3.88578e-16 -3.88578e-16 -3.88578e-16 -3.88578e-16 0.592486 0.584005 0.57443 0.563622 0.551422 0.53765 0.522103 0.504553 0.484743 0.46238 0.437135 0.408639 0.37647 0.340158 0.299166 0.252894 0.20066 0.141696 0.075136 0.6 0.6 0.6 0.6 0.6 0.6 0.6 0.6 0.6 0.6 0.6 0.6 0.6 0.6 0.6 0.6 0.6 0.6 0.6 0.6 0.6 0.6 0.6 0.6 0.6 0.6 0.6 0.6 0.6 0.6 0.6 0.6 0.6 0.6 0.6 0.6 0.6 0.6 0.6 0.6 0.6 0.6 0.6 0.6 0.6 0.6 0.6 0.6 0.6 2.92364 2.84948 2.77744 2.70748 2.63952 2.57352 2.50941 2.44714 2.38666 2.32792 2.27087 2.21546 2.16164 2.10936 2.05858 2.00927 1.96137 1.91485 1.86966 1.82577 1.78314 1.74174 1.70153 1.66247 1.62453 1.58768 1.55189 1.51713 1.48337 1.45058 1.41873 1.38779 1.35775 1.32856 1.30022 1.27269 1.24595 1.21997 1.19475 1.17025 1.14645 1.12334 1.10089 1.07908 1.0579 1.03733 1.01735 0.997948 0.9791 0.960793 0.943012 0.925742 0.908969 0.892677 0.876853 0.861483 0.846555 0.832056 0.817974 0.804296 0.791011 0.778107 0.765574 0.753401 0.741578 0.730095 0.718941 0.708108 0.697586 0.687366 0.67744 0.667799 0.658435 0.649339 0.640506 0.631925 0.623592 0.615498 0.607636 3 3 3 3 3 3 3 3 3 3 3 3 3 3 3 3 3 3 3 3 3 3 3 3 3 3 3 3 3 3 3 3 3 3 3 3 3 3 3 3 3 3 3 3 3 3 3 3 3 0.607636 0.615498 0.623592 0.631925 0.640506 0.649339 0.658435 0.667799 0.67744 0.687366 0.697586 0.708108 0.718941 0.730095 0.741578 0.753401 0.765574 0.778107 0.791011 0.804296 0.817974 0.832056 0.846555 0.861483 0.876853 0.892677 0.908969 0.925742 0.943012 0.960793 0.9791 0.997948 1.01735 1.03733 1.0579 1.07908 1.10089 1.12334 1.14645 1.17025 1.19475 1.21997 1.24595 1.27269 1.30022 1.32856 1.35775 1.38779 1.41873 1.45058 1.48337 1.51713 1.55189 1.58768 1.62453 1.66247 1.70153 1.74174 1.78314 1.82577 1.86966 1.91485 1.96137 2.00927 2.05858 2.10936 2.16164 2.21546 2.27087 2.32792 2.38666 2.44714 2.50941 2.57352 2.63952 2.70748 2.77744 2.84948 2.92364 0.075136 0.141696 0.20066 0.252894 0.299166 0.340158 0.37647 0.408639 0.437135 0.46238 0.484743 0.504553 0.522103 0.53765 0.551422 0.563622 0.57443 0.584005 0.592486 0.075136 0.141696 0.20066 0.252894 0.299166 0.340158 0.37647 0.408639 0.437135 0.46238 0.484743 0.504553 0.522103 0.53765 0.551422 0.563622 0.57443 0.584005 0.592486 0.075136 0.141696 0.20066 0.252894 0.299166 0.340158 0.37647 0.408639 0.437135 0.46238 0.484743 0.504553 0.522103 0.53765 0.551422 0.563622 0.57443 0.584005 0.592486 0.075136 0.141696 0.20066 0.252894 0.299166 0.340158 0.37647 0.408639 0.437135 0.46238 0.484743 0.504553 0.522103 0.53765 0.551422 0.563622 0.57443 0.584005 0.592486 0.075136 0.141696 0.20066 0.252894 0.299166 0.340158 0.37647 0.408639 0.437135 0.46238 0.484743 0.504553 0.522103 0.53765 0.551422 0.563622 0.57443 0.584005 0.592486 0.075136 0.141696 0.20066 0.252894 0.299166 0.340158 0.37647 0.408639 0.437135 0.46238 0.484743 0.504553 0.522103 0.53765 0.551422 0.563622 0.57443 0.584005 0.592486 0.075136 0.141696 0.20066 0.252894 0.299166 0.340158 0.37647 0.408639 0.437135 0.46238 0.484743 0.504553 0.522103 0.53765 0.551422 0.563622 0.57443 0.584005 0.592486 0.075136 0.141696 0.20066 0.252894 0.299166 0.340158 0.37647 0.408639 0.437135 0.46238 0.484743 0.504553 0.522103 0.53765 0.551422 0.563622 0.57443 0.584005 0.592486 0.075136 0.141696 0.20066 0.252894 0.299166 0.340158 0.37647 0.408639 0.437135 0.46238 0.484743 0.504553 0.522103 0.53765 0.551422 0.563622 0.57443 0.584005 0.592486 0.075136 0.141696 0.20066 0.252894 0.299166 0.340158 0.37647 0.408639 0.437135 0.46238 0.484743 0.504553 0.522103 0.53765 0.551422 0.563622 0.57443 0.584005 0.592486 0.075136 0.141696 0.20066 0.252894 0.299166 0.340158 0.37647 0.408639 0.437135 0.46238 0.484743 0.504553 0.522103 0.53765 0.551422 0.563622 0.57443 0.584005 0.592486 0.075136 0.141696 0.20066 0.252894 0.299166 0.340158 0.37647 0.408639 0.437135 0.46238 0.484743 0.504553 0.522103 0.53765 0.551422 0.563622 0.57443 0.584005 0.592486 0.075136 0.141696 0.20066 0.252894 0.299166 0.340158 0.37647 0.408639 0.437135 0.46238 0.484743 0.504553 0.522103 0.53765 0.551422 0.563622 0.57443 0.584005 0.592486 0.075136 0.141696 0.20066 0.252894 0.299166 0.340158 0.37647 0.408639 0.437135 0.46238 0.484743 0.504553 0.522103 0.53765 0.551422 0.563622 0.57443 0.584005 0.592486 0.075136 0.141696 0.20066 0.252894 0.299166 0.340158 0.37647 0.408639 0.437135 0.46238 0.484743 0.504553 0.522103 0.53765 0.551422 0.563622 0.57443 0.584005 0.592486 0.075136 0.141696 0.20066 0.252894 0.299166 0.340158 0.37647 0.408639 0.437135 0.46238 0.484743 0.504553 0.522103 0.53765 0.551422 0.563622 0.57443 0.584005 0.592486 0.075136 0.141696 0.20066 0.252894 0.299166 0.340158 0.37647 0.408639 0.437135 0.46238 0.484743 0.504553 0.522103 0.53765 0.551422 0.563622 0.57443 0.584005 0.592486 0.075136 0.141696 0.20066 0.252894 0.299166 0.340158 0.37647 0.408639 0.437135 0.46238 0.484743 0.504553 0.522103 0.53765 0.551422 0.563622 0.57443 0.584005 0.592486 0.075136 0.141696 0.20066 0.252894 0.299166 0.340158 0.37647 0.408639 0.437135 0.46238 0.484743 0.504553 0.522103 0.53765 0.551422 0.563622 0.57443 0.584005 0.592486 0.075136 0.141696 0.20066 0.252894 0.299166 0.340158 0.37647 0.408639 0.437135 0.46238 0.484743 0.504553 0.522103 0.53765 0.551422 0.563622 0.57443 0.584005 0.592486 0.075136 0.141696 0.20066 0.252894 0.299166 0.340158 0.37647 0.408639 0.437135 0.46238 0.484743 0.504553 0.522103 0.53765 0.551422 0.563622 0.57443 0.584005 0.592486 0.075136 0.141696 0.20066 0.252894 0.299166 0.340158 0.37647 0.408639 0.437135 0.46238 0.484743 0.504553 0.522103 0.53765 0.551422 0.563622 0.57443 0.584005 0.592486 0.075136 0.141696 0.20066 0.252894 0.299166 0.340158 0.37647 0.408639 0.437135 0.46238 0.484743 0.504553 0.522103 0.53765 0.551422 0.563622 0.57443 0.584005 0.592486 0.075136 0.141696 0.20066 0.252894 0.299166 0.340158 0.37647 0.408639 0.437135 0.46238 0.484743 0.504553 0.522103 0.53765 0.551422 0.563622 0.57443 0.584005 0.592486 0.075136 0.141696 0.20066 0.252894 0.299166 0.340158 0.37647 0.408639 0.437135 0.46238 0.484743 0.504553 0.522103 0.53765 0.551422 0.563622 0.57443 0.584005 0.592486 0.075136 0.141696 0.20066 0.252894 0.299166 0.340158 0.37647 0.408639 0.437135 0.46238 0.484743 0.504553 0.522103 0.53765 0.551422 0.563622 0.57443 0.584005 0.592486 0.075136 0.141696 0.20066 0.252894 0.299166 0.340158 0.37647 0.408639 0.437135 0.46238 0.484743 0.504553 0.522103 0.53765 0.551422 0.563622 0.57443 0.584005 0.592486 0.075136 0.141696 0.20066 0.252894 0.299166 0.340158 0.37647 0.408639 0.437135 0.46238 0.484743 0.504553 0.522103 0.53765 0.551422 0.563622 0.57443 0.584005 0.592486 0.075136 0.141696 0.20066 0.252894 0.299166 0.340158 0.37647 0.408639 0.437135 0.46238 0.484743 0.504553 0.522103 0.53765 0.551422 0.563622 0.57443 0.584005 0.592486 0.075136 0.141696 0.20066 0.252894 0.299166 0.340158 0.37647 0.408639 0.437135 0.46238 0.484743 0.504553 0.522103 0.53765 0.551422 0.563622 0.57443 0.584005 0.592486 0.075136 0.141696 0.20066 0.252894 0.299166 0.340158 0.37647 0.408639 0.437135 0.46238 0.484743 0.504553 0.522103 0.53765 0.551422 0.563622 0.57443 0.584005 0.592486 0.075136 0.141696 0.20066 0.252894 0.299166 0.340158 0.37647 0.408639 0.437135 0.46238 0.484743 0.504553 
0.522103 0.53765 0.551422 0.563622 0.57443 0.584005 0.592486 0.075136 0.141696 0.20066 0.252894 0.299166 0.340158 0.37647 0.408639 0.437135 0.46238 0.484743 0.504553 0.522103 0.53765 0.551422 0.563622 0.57443 0.584005 0.592486 0.075136 0.141696 0.20066 0.252894 0.299166 0.340158 0.37647 0.408639 0.437135 0.46238 0.484743 0.504553 0.522103 0.53765 0.551422 0.563622 0.57443 0.584005 0.592486 0.075136 0.141696 0.20066 0.252894 0.299166 0.340158 0.37647 0.408639 0.437135 0.46238 0.484743 0.504553 0.522103 0.53765 0.551422 0.563622 0.57443 0.584005 0.592486 0.075136 0.141696 0.20066 0.252894 0.299166 0.340158 0.37647 0.408639 0.437135 0.46238 0.484743 0.504553 0.522103 0.53765 0.551422 0.563622 0.57443 0.584005 0.592486 0.075136 0.141696 0.20066 0.252894 0.299166 0.340158 0.37647 0.408639 0.437135 0.46238 0.484743 0.504553 0.522103 0.53765 0.551422 0.563622 0.57443 0.584005 0.592486 0.075136 0.141696 0.20066 0.252894 0.299166 0.340158 0.37647 0.408639 0.437135 0.46238 0.484743 0.504553 0.522103 0.53765 0.551422 0.563622 0.57443 0.584005 0.592486 0.075136 0.141696 0.20066 0.252894 0.299166 0.340158 0.37647 0.408639 0.437135 0.46238 0.484743 0.504553 0.522103 0.53765 0.551422 0.563622 0.57443 0.584005 0.592486 0.075136 0.141696 0.20066 0.252894 0.299166 0.340158 0.37647 0.408639 0.437135 0.46238 0.484743 0.504553 0.522103 0.53765 0.551422 0.563622 0.57443 0.584005 0.592486 0.075136 0.141696 0.20066 0.252894 0.299166 0.340158 0.37647 0.408639 0.437135 0.46238 0.484743 0.504553 0.522103 0.53765 0.551422 0.563622 0.57443 0.584005 0.592486 0.075136 0.141696 0.20066 0.252894 0.299166 0.340158 0.37647 0.408639 0.437135 0.46238 0.484743 0.504553 0.522103 0.53765 0.551422 0.563622 0.57443 0.584005 0.592486 0.075136 0.141696 0.20066 0.252894 0.299166 0.340158 0.37647 0.408639 0.437135 0.46238 0.484743 0.504553 0.522103 0.53765 0.551422 0.563622 0.57443 0.584005 0.592486 0.075136 0.141696 0.20066 0.252894 0.299166 0.340158 0.37647 0.408639 0.437135 0.46238 0.484743 0.504553 0.522103 0.53765 0.551422 0.563622 0.57443 0.584005 0.592486 0.075136 0.141696 0.20066 0.252894 0.299166 0.340158 0.37647 0.408639 0.437135 0.46238 0.484743 0.504553 0.522103 0.53765 0.551422 0.563622 0.57443 0.584005 0.592486 0.075136 0.141696 0.20066 0.252894 0.299166 0.340158 0.37647 0.408639 0.437135 0.46238 0.484743 0.504553 0.522103 0.53765 0.551422 0.563622 0.57443 0.584005 0.592486 0.075136 0.141696 0.20066 0.252894 0.299166 0.340158 0.37647 0.408639 0.437135 0.46238 0.484743 0.504553 0.522103 0.53765 0.551422 0.563622 0.57443 0.584005 0.592486 0.075136 0.141696 0.20066 0.252894 0.299166 0.340158 0.37647 0.408639 0.437135 0.46238 0.484743 0.504553 0.522103 0.53765 0.551422 0.563622 0.57443 0.584005 0.592486 0.075136 0.141696 0.20066 0.252894 0.299166 0.340158 0.37647 0.408639 0.437135 0.46238 0.484743 0.504553 0.522103 0.53765 0.551422 0.563622 0.57443 0.584005 0.592486 0.075136 0.141696 0.20066 0.252894 0.299166 0.340158 0.37647 0.408639 0.437135 0.46238 0.484743 0.504553 0.522103 0.53765 0.551422 0.563622 0.57443 0.584005 0.592486 0.075136 0.141696 0.20066 0.252894 0.299166 0.340158 0.37647 0.408639 0.437135 0.46238 0.484743 0.504553 0.522103 0.53765 0.551422 0.563622 0.57443 0.584005 0.592486 0.075136 0.141696 0.20066 0.252894 0.299166 0.340158 0.37647 0.408639 0.437135 0.46238 0.484743 0.504553 0.522103 0.53765 0.551422 0.563622 0.57443 0.584005 0.592486 0.075136 0.141696 0.20066 0.252894 0.299166 0.340158 0.37647 0.408639 0.437135 0.46238 0.484743 0.504553 0.522103 0.53765 0.551422 0.563622 0.57443 0.584005 0.592486 0.075136 0.141696 0.20066 0.252894 0.299166 0.340158 0.37647 0.408639 0.437135 0.46238 0.484743 0.504553 0.522103 0.53765 0.551422 0.563622 0.57443 0.584005 0.592486 0.075136 0.141696 0.20066 0.252894 0.299166 0.340158 0.37647 0.408639 0.437135 0.46238 0.484743 0.504553 0.522103 0.53765 0.551422 0.563622 0.57443 0.584005 0.592486 0.075136 0.141696 0.20066 0.252894 0.299166 0.340158 0.37647 0.408639 0.437135 0.46238 0.484743 0.504553 0.522103 0.53765 0.551422 0.563622 0.57443 0.584005 0.592486 0.075136 0.141696 0.20066 0.252894 0.299166 0.340158 0.37647 0.408639 0.437135 0.46238 0.484743 0.504553 0.522103 0.53765 0.551422 0.563622 0.57443 0.584005 0.592486 0.075136 0.141696 0.20066 0.252894 0.299166 0.340158 0.37647 0.408639 0.437135 0.46238 0.484743 0.504553 0.522103 0.53765 0.551422 0.563622 0.57443 0.584005 0.592486 0.075136 0.141696 0.20066 0.252894 0.299166 0.340158 0.37647 0.408639 0.437135 0.46238 0.484743 0.504553 0.522103 0.53765 0.551422 0.563622 0.57443 0.584005 0.592486 0.075136 0.141696 0.20066 0.252894 0.299166 0.340158 0.37647 0.408639 0.437135 0.46238 0.484743 0.504553 0.522103 0.53765 0.551422 0.563622 0.57443 0.584005 0.592486 0.075136 0.141696 0.20066 0.252894 0.299166 0.340158 0.37647 0.408639 0.437135 0.46238 0.484743 0.504553 0.522103 0.53765 0.551422 0.563622 0.57443 0.584005 0.592486 0.075136 0.141696 0.20066 0.252894 0.299166 0.340158 0.37647 0.408639 0.437135 0.46238 0.484743 0.504553 0.522103 0.53765 0.551422 0.563622 0.57443 0.584005 0.592486 0.075136 0.141696 0.20066 0.252894 0.299166 0.340158 0.37647 0.408639 0.437135 0.46238 0.484743 0.504553 0.522103 0.53765 0.551422 0.563622 0.57443 0.584005 0.592486 0.607636 0.615498 0.623592 0.631925 0.640506 0.649339 0.658435 0.667799 0.67744 0.687366 0.697586 0.708108 0.718941 0.730095 0.741578 0.753401 0.765574 0.778107 0.791011 0.804296 0.817974 0.832056 0.846555 0.861483 0.876853 0.892677 0.908969 0.925742 0.943012 0.960793 0.9791 0.997948 1.01735 1.03733 1.0579 1.07908 1.10089 1.12334 1.14645 1.17025 1.19475 1.21997 1.24595 1.27269 1.30022 1.32856 1.35775 1.38779 1.41873 1.45058 1.48337 1.51713 1.55189 1.58768 1.62453 1.66247 1.70153 1.74174 1.78314 1.82577 1.86966 1.91485 1.96137 2.00927 2.05858 2.10936 2.16164 2.21546 2.27087 2.32792 2.38666 2.44714 2.50941 2.57352 2.63952 2.70748 2.77744 2.84948 2.92364 0.607636 0.615498 0.623592 0.631925 0.640506 0.649339 0.658435 0.667799 0.67744 0.687366 0.697586 0.708108 0.718941 0.730095 0.741578 0.753401 0.765574 0.778107 0.791011 0.804296 0.817974 0.832056 0.846555 0.861483 0.876853 0.892677 0.908969 0.925742 0.943012 0.960793 0.9791 0.997948 1.01735 1.03733 1.0579 1.07908 1.10089 1.12334 1.14645 1.17025 1.19475 1.21997 1.24595 1.27269 1.30022 1.32856 1.35775 1.38779 1.41873 1.45058 1.48337 1.51713 1.55189 1.58768 1.62453 1.66247 1.70153 1.74174 1.78314 1.82577 1.86966 1.91485 1.96137 2.00927 2.05858 2.10936 2.16164 2.21546 2.27087 2.32792 2.38666 2.44714 2.50941 2.57352 2.63952 2.70748 2.77744 2.84948 2.92364 0.607636 0.615498 0.623592 0.631925 0.640506 0.649339 0.658435 0.667799 0.67744 0.687366 0.697586 0.708108 0.718941 0.730095 0.741578 0.753401 0.765574 0.778107 0.791011 0.804296 0.817974 0.832056 0.846555 0.861483 0.876853 0.892677 0.908969 0.925742 0.943012 0.960793 0.9791 0.997948 1.01735 1.03733 1.0579 1.07908 1.10089 1.12334 1.14645 1.17025 1.19475 1.21997 1.24595 1.27269 1.30022 1.32856 1.35775 1.38779 1.41873 1.45058 1.48337 1.51713 1.55189 1.58768 1.62453 1.66247 1.70153 1.74174 1.78314 1.82577 1.86966 1.91485 1.96137 2.00927 2.05858 2.10936 2.16164 2.21546 2.27087 2.32792 2.38666 2.44714 2.50941 2.57352 2.63952 2.70748 2.77744 2.84948 2.92364 0.607636 0.615498 0.623592 0.631925 0.640506 0.649339 0.658435 0.667799 0.67744 0.687366 0.697586 0.708108 0.718941 0.730095 0.741578 0.753401 0.765574 0.778107 0.791011 0.804296 0.817974 0.832056 0.846555 0.861483 0.876853 0.892677 0.908969 0.925742 0.943012 0.960793 0.9791 0.997948 1.01735 1.03733 1.0579 1.07908 1.10089 1.12334 1.14645 1.17025 1.19475 1.21997 1.24595 1.27269 1.30022 1.32856 1.35775 1.38779 1.41873 1.45058 1.48337 1.51713 1.55189 1.58768 1.62453 1.66247 1.70153 1.74174 1.78314 1.82577 1.86966 1.91485 1.96137 2.00927 2.05858 2.10936 2.16164 2.21546 2.27087 2.32792 2.38666 2.44714 2.50941 2.57352 2.63952 2.70748 2.77744 2.84948 2.92364 0.607636 0.615498 0.623592 0.631925 0.640506 0.649339 0.658435 0.667799 0.67744 0.687366 0.697586 0.708108 0.718941 0.730095 0.741578 0.753401 0.765574 0.778107 0.791011 0.804296 0.817974 0.832056 0.846555 0.861483 0.876853 0.892677 0.908969 0.925742 0.943012 0.960793 0.9791 0.997948 1.01735 1.03733 1.0579 1.07908 1.10089 1.12334 1.14645 1.17025 1.19475 1.21997 1.24595 1.27269 1.30022 1.32856 1.35775 1.38779 1.41873 1.45058 1.48337 1.51713 1.55189 1.58768 1.62453 1.66247 1.70153 1.74174 1.78314 1.82577 1.86966 1.91485 1.96137 2.00927 2.05858 2.10936 2.16164 2.21546 2.27087 2.32792 2.38666 2.44714 2.50941 2.57352 2.63952 2.70748 2.77744 2.84948 2.92364 0.607636 0.615498 0.623592 0.631925 0.640506 0.649339 0.658435 0.667799 0.67744 
0.687366 0.697586 0.708108 0.718941 0.730095 0.741578 0.753401 0.765574 0.778107 0.791011 0.804296 0.817974 0.832056 0.846555 0.861483 0.876853 0.892677 0.908969 0.925742 0.943012 0.960793 0.9791 0.997948 1.01735 1.03733 1.0579 1.07908 1.10089 1.12334 1.14645 1.17025 1.19475 1.21997 1.24595 1.27269 1.30022 1.32856 1.35775 1.38779 1.41873 1.45058 1.48337 1.51713 1.55189 1.58768 1.62453 1.66247 1.70153 1.74174 1.78314 1.82577 1.86966 1.91485 1.96137 2.00927 2.05858 2.10936 2.16164 2.21546 2.27087 2.32792 2.38666 2.44714 2.50941 2.57352 2.63952 2.70748 2.77744 2.84948 2.92364 0.607636 0.615498 0.623592 0.631925 0.640506 0.649339 0.658435 0.667799 0.67744 0.687366 0.697586 0.708108 0.718941 0.730095 0.741578 0.753401 0.765574 0.778107 0.791011 0.804296 0.817974 0.832056 0.846555 0.861483 0.876853 0.892677 0.908969 0.925742 0.943012 0.960793 0.9791 0.997948 1.01735 1.03733 1.0579 1.07908 1.10089 1.12334 1.14645 1.17025 1.19475 1.21997 1.24595 1.27269 1.30022 1.32856 1.35775 1.38779 1.41873 1.45058 1.48337 1.51713 1.55189 1.58768 1.62453 1.66247 1.70153 1.74174 1.78314 1.82577 1.86966 1.91485 1.96137 2.00927 2.05858 2.10936 2.16164 2.21546 2.27087 2.32792 2.38666 2.44714 2.50941 2.57352 2.63952 2.70748 2.77744 2.84948 2.92364 0.607636 0.615498 0.623592 0.631925 0.640506 0.649339 0.658435 0.667799 0.67744 0.687366 0.697586 0.708108 0.718941 0.730095 0.741578 0.753401 0.765574 0.778107 0.791011 0.804296 0.817974 0.832056 0.846555 0.861483 0.876853 0.892677 0.908969 0.925742 0.943012 0.960793 0.9791 0.997948 1.01735 1.03733 1.0579 1.07908 1.10089 1.12334 1.14645 1.17025 1.19475 1.21997 1.24595 1.27269 1.30022 1.32856 1.35775 1.38779 1.41873 1.45058 1.48337 1.51713 1.55189 1.58768 1.62453 1.66247 1.70153 1.74174 1.78314 1.82577 1.86966 1.91485 1.96137 2.00927 2.05858 2.10936 2.16164 2.21546 2.27087 2.32792 2.38666 2.44714 2.50941 2.57352 2.63952 2.70748 2.77744 2.84948 2.92364 0.607636 0.615498 0.623592 0.631925 0.640506 0.649339 0.658435 0.667799 0.67744 0.687366 0.697586 0.708108 0.718941 0.730095 0.741578 0.753401 0.765574 0.778107 0.791011 0.804296 0.817974 0.832056 0.846555 0.861483 0.876853 0.892677 0.908969 0.925742 0.943012 0.960793 0.9791 0.997948 1.01735 1.03733 1.0579 1.07908 1.10089 1.12334 1.14645 1.17025 1.19475 1.21997 1.24595 1.27269 1.30022 1.32856 1.35775 1.38779 1.41873 1.45058 1.48337 1.51713 1.55189 1.58768 1.62453 1.66247 1.70153 1.74174 1.78314 1.82577 1.86966 1.91485 1.96137 2.00927 2.05858 2.10936 2.16164 2.21546 2.27087 2.32792 2.38666 2.44714 2.50941 2.57352 2.63952 2.70748 2.77744 2.84948 2.92364 0.607636 0.615498 0.623592 0.631925 0.640506 0.649339 0.658435 0.667799 0.67744 0.687366 0.697586 0.708108 0.718941 0.730095 0.741578 0.753401 0.765574 0.778107 0.791011 0.804296 0.817974 0.832056 0.846555 0.861483 0.876853 0.892677 0.908969 0.925742 0.943012 0.960793 0.9791 0.997948 1.01735 1.03733 1.0579 1.07908 1.10089 1.12334 1.14645 1.17025 1.19475 1.21997 1.24595 1.27269 1.30022 1.32856 1.35775 1.38779 1.41873 1.45058 1.48337 1.51713 1.55189 1.58768 1.62453 1.66247 1.70153 1.74174 1.78314 1.82577 1.86966 1.91485 1.96137 2.00927 2.05858 2.10936 2.16164 2.21546 2.27087 2.32792 2.38666 2.44714 2.50941 2.57352 2.63952 2.70748 2.77744 2.84948 2.92364 0.607636 0.615498 0.623592 0.631925 0.640506 0.649339 0.658435 0.667799 0.67744 0.687366 0.697586 0.708108 0.718941 0.730095 0.741578 0.753401 0.765574 0.778107 0.791011 0.804296 0.817974 0.832056 0.846555 0.861483 0.876853 0.892677 0.908969 0.925742 0.943012 0.960793 0.9791 0.997948 1.01735 1.03733 1.0579 1.07908 1.10089 1.12334 1.14645 1.17025 1.19475 1.21997 1.24595 1.27269 1.30022 1.32856 1.35775 1.38779 1.41873 1.45058 1.48337 1.51713 1.55189 1.58768 1.62453 1.66247 1.70153 1.74174 1.78314 1.82577 1.86966 1.91485 1.96137 2.00927 2.05858 2.10936 2.16164 2.21546 2.27087 2.32792 2.38666 2.44714 2.50941 2.57352 2.63952 2.70748 2.77744 2.84948 2.92364 0.607636 0.615498 0.623592 0.631925 0.640506 0.649339 0.658435 0.667799 0.67744 0.687366 0.697586 0.708108 0.718941 0.730095 0.741578 0.753401 0.765574 0.778107 0.791011 0.804296 0.817974 0.832056 0.846555 0.861483 0.876853 0.892677 0.908969 0.925742 0.943012 0.960793 0.9791 0.997948 1.01735 1.03733 1.0579 1.07908 1.10089 1.12334 1.14645 1.17025 1.19475 1.21997 1.24595 1.27269 1.30022 1.32856 1.35775 1.38779 1.41873 1.45058 1.48337 1.51713 1.55189 1.58768 1.62453 1.66247 1.70153 1.74174 1.78314 1.82577 1.86966 1.91485 1.96137 2.00927 2.05858 2.10936 2.16164 2.21546 2.27087 2.32792 2.38666 2.44714 2.50941 2.57352 2.63952 2.70748 2.77744 2.84948 2.92364 0.607636 0.615498 0.623592 0.631925 0.640506 0.649339 0.658435 0.667799 0.67744 0.687366 0.697586 0.708108 0.718941 0.730095 0.741578 0.753401 0.765574 0.778107 0.791011 0.804296 0.817974 0.832056 0.846555 0.861483 0.876853 0.892677 0.908969 0.925742 0.943012 0.960793 0.9791 0.997948 1.01735 1.03733 1.0579 1.07908 1.10089 1.12334 1.14645 1.17025 1.19475 1.21997 1.24595 1.27269 1.30022 1.32856 1.35775 1.38779 1.41873 1.45058 1.48337 1.51713 1.55189 1.58768 1.62453 1.66247 1.70153 1.74174 1.78314 1.82577 1.86966 1.91485 1.96137 2.00927 2.05858 2.10936 2.16164 2.21546 2.27087 2.32792 2.38666 2.44714 2.50941 2.57352 2.63952 2.70748 2.77744 2.84948 2.92364 0.607636 0.615498 0.623592 0.631925 0.640506 0.649339 0.658435 0.667799 0.67744 0.687366 0.697586 0.708108 0.718941 0.730095 0.741578 0.753401 0.765574 0.778107 0.791011 0.804296 0.817974 0.832056 0.846555 0.861483 0.876853 0.892677 0.908969 0.925742 0.943012 0.960793 0.9791 0.997948 1.01735 1.03733 1.0579 1.07908 1.10089 1.12334 1.14645 1.17025 1.19475 1.21997 1.24595 1.27269 1.30022 1.32856 1.35775 1.38779 1.41873 1.45058 1.48337 1.51713 1.55189 1.58768 1.62453 1.66247 1.70153 1.74174 1.78314 1.82577 1.86966 1.91485 1.96137 2.00927 2.05858 2.10936 2.16164 2.21546 2.27087 2.32792 2.38666 2.44714 2.50941 2.57352 2.63952 2.70748 2.77744 2.84948 2.92364 0.607636 0.615498 0.623592 0.631925 0.640506 0.649339 0.658435 0.667799 0.67744 0.687366 0.697586 0.708108 0.718941 0.730095 0.741578 0.753401 0.765574 0.778107 0.791011 0.804296 0.817974 0.832056 0.846555 0.861483 0.876853 0.892677 0.908969 0.925742 0.943012 0.960793 0.9791 0.997948 1.01735 1.03733 1.0579 1.07908 1.10089 1.12334 1.14645 1.17025 1.19475 1.21997 1.24595 1.27269 1.30022 1.32856 1.35775 1.38779 1.41873 1.45058 1.48337 1.51713 1.55189 1.58768 1.62453 1.66247 1.70153 1.74174 1.78314 1.82577 1.86966 1.91485 1.96137 2.00927 2.05858 2.10936 2.16164 2.21546 2.27087 2.32792 2.38666 2.44714 2.50941 2.57352 2.63952 2.70748 2.77744 2.84948 2.92364 0.607636 0.615498 0.623592 0.631925 0.640506 0.649339 0.658435 0.667799 0.67744 0.687366 0.697586 0.708108 0.718941 0.730095 0.741578 0.753401 0.765574 0.778107 0.791011 0.804296 0.817974 0.832056 0.846555 0.861483 0.876853 0.892677 0.908969 0.925742 0.943012 0.960793 0.9791 0.997948 1.01735 1.03733 1.0579 1.07908 1.10089 1.12334 1.14645 1.17025 1.19475 1.21997 1.24595 1.27269 1.30022 1.32856 1.35775 1.38779 1.41873 1.45058 1.48337 1.51713 1.55189 1.58768 1.62453 1.66247 1.70153 1.74174 1.78314 1.82577 1.86966 1.91485 1.96137 2.00927 2.05858 2.10936 2.16164 2.21546 2.27087 2.32792 2.38666 2.44714 2.50941 2.57352 2.63952 2.70748 2.77744 2.84948 2.92364 0.607636 0.615498 0.623592 0.631925 0.640506 0.649339 0.658435 0.667799 0.67744 0.687366 0.697586 0.708108 0.718941 0.730095 0.741578 0.753401 0.765574 0.778107 0.791011 0.804296 0.817974 0.832056 0.846555 0.861483 0.876853 0.892677 0.908969 0.925742 0.943012 0.960793 0.9791 0.997948 1.01735 1.03733 1.0579 1.07908 1.10089 1.12334 1.14645 1.17025 1.19475 1.21997 1.24595 1.27269 1.30022 1.32856 1.35775 1.38779 1.41873 1.45058 1.48337 1.51713 1.55189 1.58768 1.62453 1.66247 1.70153 1.74174 1.78314 1.82577 1.86966 1.91485 1.96137 2.00927 2.05858 2.10936 2.16164 2.21546 2.27087 2.32792 2.38666 2.44714 2.50941 2.57352 2.63952 2.70748 2.77744 2.84948 2.92364 0.607636 0.615498 0.623592 0.631925 0.640506 0.649339 0.658435 0.667799 0.67744 0.687366 0.697586 0.708108 0.718941 0.730095 0.741578 0.753401 0.765574 0.778107 0.791011 0.804296 0.817974 0.832056 0.846555 0.861483 0.876853 0.892677 0.908969 0.925742 0.943012 0.960793 0.9791 0.997948 1.01735 1.03733 1.0579 1.07908 1.10089 1.12334 1.14645 1.17025 1.19475 1.21997 1.24595 1.27269 1.30022 1.32856 1.35775 1.38779 1.41873 1.45058 1.48337 1.51713 1.55189 1.58768 1.62453 1.66247 1.70153 1.74174 1.78314 1.82577 1.86966 