
TITLE     = "DG2D to Tecplot"
VARIABLES = "X", "Y", "RHO", "U" ,"V", "VELOCITY_MAG", "P", "T"
ZONE T="ZONE 1"
ZONETYPE=FEQUADRILATERAL
DATAPACKING=BLOCK
NODES=1950, ELEMENTS=3654
0.02 0.02 -3.88578e-16 -3.88578e-16 0.11 0.11 0.00250453 0.00472321 0.00668867 0.0084298 0.00997222 0.0113386 0.012549 0.0136213 0.0145712 0.0154127 0.0161581 0.0168184 0.0174034 0.0179217 0.0183807 0.0187874 0.0191477 0.0194668 0.0197495 0.0206923 0.0213846 0.0220769 0.0227692 0.0234615 0.0241538 0.0248462 0.0255385 0.0262308 0.0269231 0.0276154 0.0283077 0.029 0.0296923 0.0303846 0.0310769 0.0317692 0.0324615 0.0331538 0.0338462 0.0345385 0.0352308 0.0359231 0.0366154 0.0373077 0.038 0.0386923 0.0393846 0.0400769 0.0407692 0.0414615 0.0421538 0.0428462 0.0435385 0.0442308 0.0449231 0.0456154 0.0463077 0.047 0.0476923 0.0483846 0.0490769 0.0497692 0.0504615 0.0511538 0.0518462 0.0525385 0.0532308 0.0539231 0.0546154 0.0553077 0.056 0.0566923 0.0573846 0.0580769 0.0587692 0.0594615 0.0601538 0.0608462 0.0615385 0.0622308 0.0629231 0.0636154 0.0643077 0.065 0.0656923 0.0663846 0.0670769 0.0677692 0.0684615 0.0691538 0.0698462 0.0705385 0.0712308 0.0719231 0.0726154 0.0733077 0.074 0.0746923 0.0753846 0.0760769 0.0767692 0.0774615 0.0781538 0.0788462 0.0795385 0.0802308 0.0809231 0.0816154 0.0823077 0.083 0.0836923 0.0843846 0.0850769 0.0857692 0.0864615 0.0871538 0.0878462 0.0885385 0.0892308 0.0899231 0.0906154 0.0913077 0.092 0.0926923 0.0933846 0.0940769 0.0947692 0.0954615 0.0961538 0.0968462 0.0975385 0.0982308 0.0989231 0.0996154 0.100308 0.101 0.101692 0.102385 0.103077 0.103769 0.104462 0.105154 0.105846 0.106538 0.107231 0.107923 0.108615 0.109308 -3.88578e-16 -3.88578e-16 -3.88578e-16 -3.88578e-16 -3.88578e-16 -3.88578e-16 -3.88578e-16 -3.88578e-16 -3.88578e-16 -3.88578e-16 -3.88578e-16 -3.88578e-16 -3.88578e-16 -3.88578e-16 -3.88578e-16 -3.88578e-16 -3.88578e-16 -3.88578e-16 -3.88578e-16 -3.88578e-16 -3.88578e-16 -3.88578e-16 -3.88578e-16 0.0175 0.015 0.0125 0.01 0.0075 0.005 0.0025 0.02 0.02 0.02 0.02 0.02 0.02 0.02 0.02 0.02 0.02 0.02 0.02 0.02 0.02 0.02 0.02 0.02 0.02 0.02 0.02 0.02 0.02 0.02 0.02 0.02 0.02 0.02 0.02 0.1075 0.105 0.1025 0.1 0.0975 0.095 0.0925 0.09 0.0875 0.085 0.0825 0.08 0.0775 0.075 0.0725 0.07 0.0675 0.065 0.0625 0.06 0.0575 0.055 0.0525 0.05 0.0475 0.045 0.0425 0.04 0.0375 0.035 0.0325 0.03 0.0275 0.025 0.0225 0.11 0.11 0.11 0.11 0.11 0.11 0.11 0.11 0.11 0.11 0.11 0.11 0.11 0.11 0.11 0.11 0.11 0.11 0.11 0.11 0.11 0.11 0.11 0.11 0.11 0.00316775 0.00740007 0.0106125 0.0130581 0.0149506 0.0164556 0.0176633 0.0186144 0.0193076 0.00220023 0.00221072 0.00222324 0.00222796 0.00221884 0.00221688 0.0022176 0.00221727 0.00221599 0.00219887 0.00215205 0.0164632 0.0111247 0.00623634 0.0196328 0.0194159 0.0190096 0.0183829 0.0178589 0.017795 0.0177882 0.0177858 0.0177847 0.0177856 0.0177945 0.0178194 0.0177362 0.0178021 0.00537843 0.00913442 0.0118642 0.0140803 0.0157174 0.0171181 0.0181846 0.0189803 0.00219271 0.00229463 0.00223206 0.00222161 0.00221722 0.00221753 0.00221694 0.00221717 0.00221038 0.00217791 0.00195906 0.0137494 0.00865054 0.00408221 0.0195533 0.019252 0.0187948 0.0179833 0.0178105 0.0177904 0.0177869 0.0177861 0.0177855 0.0177878 0.017806 0.0178051 0.0176561 0.00659188 0.00443599 0.0136438 0.0101025 0.0153839 0.0192491 0.0168695 0.0180339 0.00447203 0.00443546 0.00844601 0.00444564 0.00443327 0.00448357 0.0048028 0.0151209 0.00443438 0.00446138 0.00443487 0.00443926 0.00443443 0.00443388 0.00443538 0.00441778 0.0043171 0.0095175 0.0121293 0.00428583 0.004321 0.0187608 0.0182264 0.0173032 0.0157337 0.0155944 0.0155755 0.0155712 0.0155691 0.0155682 0.0155757 0.0156212 0.0155933 0.0161149 0.0125414 0.0114146 0.0145789 0.0185075 0.0175101 0.015381 0.0188738 0.00727642 0.00443663 0.00443142 0.00438157 0.0155817 0.0190107 0.0179172 0.0161166 0.0156299 0.0155726 0.0155709 0.015569 0.0155695 0.015592 0.0156563 0.00662564 0.00665979 0.00729375 0.0128497 0.0180494 0.00671061 0.00674825 0.0133491 0.0167331 0.0134529 0.0170241 0.00665777 0.00661765 0.0133886 0.0135488 0.00665458 0.0133673 0.0066596 0.0174117 0.01349 0.0133854 0.0133503 0.0134173 0.0133515 0.0133539 0.0133497 0.0133455 0.013347 0.0133604 0.00665889 0.0134471 0.00639681 0.0101728 0.00666442 0.0113552 0.00654558 0.00665488 0.0151067 0.0184689 0.0062465 0.00665527 0.0135879 0.00665684 0.0142649 0.0156228 0.00665673 0.0133504 0.00665831 0.00667793 0.0133586 0.0133481 0.0083432 0.0127018 0.0166763 0.0097944 0.0111328 0.011181 0.00892111 0.00884974 0.0111227 0.0111224 0.0159468 0.0144268 0.00846814 0.00888828 0.0108983 0.0088956 0.0111192 0.0111231 0.0111392 0.0111228 0.00898635 0.0111206 0.0111154 0.00870682 0.0111164 0.0111395 0.00888587 0.00888898 0.00888423 0.0157737 0.0111051 0.0111438 0.00918019 0.00889722 0.0112844 0.0111266 0.00888417 0.00888866 0.0088923 0.00888686 0.0108948 0.0088881 0.00888213 0.0116184 0.0210367 0.0216758 0.0230574 0.0244773 0.0258919 0.027266 0.028633 0.0299963 0.0313959 0.0328022 0.0342108 0.0355984 0.0369779 0.0383689 0.0397376 0.0411237 0.042509 0.0438927 0.0452815 0.0466615 0.0480539 0.0494399 0.0508233 0.0521711 0.0535665 0.0549409 0.0563302 0.0577107 0.0591107 0.0605036 0.0618777 0.0632494 0.0646338 0.0660102 0.0673688 0.0687712 0.070217 0.0716275 0.0730092 0.0743676 0.0757118 0.0770821 0.0784714 0.0798778 0.0812753 0.0826632 0.0840503 0.0854278 0.0868078 0.0881795 0.0895613 0.0909487 0.0923376 0.0937138 0.0951052 0.0964827 0.0978706 0.0992439 0.100643 0.102034 0.103406 0.104799 0.106202 0.107633 0.108988 0.0203346 0.0204 0.020398 0.020922 0.0211659 0.0211468 0.0221513 0.0221648 0.0221668 0.0221672 0.022167 0.0221661 0.0221653 0.0221648 0.022165 0.0221661 0.0221681 0.0221706 0.0221726 0.0221725 0.0221699 0.0221671 0.0221691 0.0222176 0.0220861 0.0216875 0.105886 0.101208 0.096227 0.0912537 0.0862609 0.0812566 0.0762525 0.0712507 0.0662502 0.0612505 0.0562515 0.0512548 0.0462641 0.0412804 0.0362861 0.0312763 0.0262151 0.0237949 0.108847 0.108284 0.107988 0.107852 0.107827 0.107829 0.107831 0.107821 0.107787 0.107805 0.107866 0.107802 0.0204999 0.0223667 0.0237941 0.0252116 0.0266025 0.0279647 0.0293259 0.0307193 0.0321182 0.0334849 0.034885 0.0362643 0.0376442 0.0390346 0.0404012 0.0417979 0.0431708 0.0445676 0.0459483 0.0473281 0.0487294 0.0501021 0.0515009 0.0528926 0.0542791 0.0556553 0.0570457 0.0584316 0.0598352 0.0612053 0.0625811 0.0639683 0.0653337 0.0667054 0.0680894 0.0694801 0.0709099 0.0723063 0.0736801 0.0750306 0.07638 0.0777512 0.0791496 0.0805566 0.0819402 0.0833372 0.0847162 0.0860928 0.0874789 0.0888969 0.0902778 0.0916633 0.0930558 0.0944281 0.095823 0.0971987 0.0985808 0.0999635 0.101366 0.102746 0.104137 0.105506 0.106936 0.108276 0.0207609 0.0220707 0.109046 0.0937422 0.103659 0.0987172 0.0887591 0.0837588 0.0787546 0.0737511 0.0687503 0.0637503 0.0587507 0.0537524 0.0487577 0.0437708 0.0387845 0.0337855 0.0287605 0.108507 0.108137 0.1079 0.107833 0.107828 0.107831 0.107829 0.107806 0.107781 0.107866 0.107753 0.0207685 0.0213075 0.0226256 0.0248293 0.0628924 0.0262704 0.0276615 0.028896 0.030296 0.0317124 0.0331518 0.0345735 0.0359407 0.0373049 0.0386948 0.04005 0.0414559 0.0532185 0.0643445 0.0525287 0.0552958 0.0989257 0.0566879 0.0546073 0.0580565 0.0559714 0.059506 0.0573393 0.0609199 0.0587592 0.0621679 0.0602004 0.0636027 0.0615419 0.0656602 0.0669536 0.068391 0.0698493 0.0713412 0.0727915 0.0740804 0.0753649 0.0766179 0.0780367 0.0891918 0.100309 0.0885392 0.0913177 0.106363 0.0927354 0.0905946 0.0940797 0.0919965 0.095477 0.093401 0.096809 0.0947545 0.0982116 0.096127 0.0995861 0.0975373 0.101711 0.103131 0.104437 0.105873 0.107403 0.0900237 0.0775064 0.020881 0.085023 0.0225942 0.107978 0.0949802 0.0243292 0.0243322 0.0243334 0.0243326 0.0243309 0.0243295 0.024329 0.02433 0.0243332 0.0243383 0.0243439 0.0243468 0.0243439 0.0243347 0.0243289 0.0243194 0.0246319 0.102425 0.0875262 0.0925105 0.105222 0.105731 0.08001 0.0974359 0.0725014 0.0675004 0.0625007 0.0575021 0.0525069 0.0475202 0.0425522 0.0375918 0.032601 0.0274969 0.105656 0.0999114 0.0825161 0.106698 0.105859 0.105676 0.106079 0.105659 0.105664 0.105655 0.105593 0.105549 0.105822 0.0241233 0.0219443 0.0215335 0.025586 0.0233638 0.0221269 0.0242898 0.026984 0.0282994 0.0295944 0.0310165 0.0324544 0.0338766 0.0352766 0.0366619 0.0380215 0.0393833 0.0407591 0.0421502 0.0442389 0.0456175 0.0470147 0.0484129 0.0497802 0.051173 0.0539327 0.0720514 0.0705756 0.065015 0.0662531 0.0676442 0.0690941 0.073404 0.0747032 0.0759917 0.0773421 0.0802236 0.0816254 0.0830093 0.0843773 0.0857623 0.0871484 0.0899063 0.106561 0.100999 0.102408 0.103763 0.105166 0.108227 0.024337 0.0700008 0.0750031 0.0650004 0.0600013 0.0550034 0.0500108 0.0450324 0.040075 0.0350953 0.0300516 0.107156 0.105663 0.105655 0.105662 0.105635 0.105551 0.105644 0.105707 0.0214186 0.044904 0.0462999 0.0476783 0.0490767 0.0504444 0.0518315 0.0809174 0.0822809 0.0836686 0.0850545 0.0864344 0.0878123 0.0243204 0.0435058 0.0794789 0.0787774 0.0428447 0.0298437 0.0264328 0.104906 0.103983 0.0370538 0.0383233 0.0718069 0.0397036 0.0411178 0.103301 0.0759053 0.0528695 0.0404201 0.0274625 0.0389281 0.0624115 0.0710372 0.0702354 0.0736188 0.0747591 0.0512641 0.0376777 0.0363555 0.0349512 0.0336266 0.0986025 0.0328172 0.0242658 0.0837834 0.0937845 0.107002 0.0587524 0.100992 0.0264986 0.0264996 0.0264971 0.0264942 0.0264923 0.0264922 0.0264951 0.0265019 0.0265123 0.026522 0.0265239 0.0265119 0.0264854 0.0264931 0.0263579 0.0862957 0.0762568 0.0287447 0.096216 0.0687507 0.103327 0.0637511 0.0612518 0.0537575 0.103492 0.0462851 0.0487722 0.0413532 0.0314883 0.036442 0.0389132 0.0438073 0.033957 0.103255 0.10349 0.0888096 0.103487 0.103494 0.0264859 0.103433 0.103343 0.103539 0.105313 0.0342686 0.0712513 0.103497 0.0357 0.0244867 0.103656 0.0985889 0.0787622 0.0264873 0.103536 0.0909415 0.0887745 0.0550341 0.059895 0.067923 0.0229036 0.0424927 0.0312691 0.0875163 0.0832565 0.0820025 0.0514877 0.0444999 0.0977938 0.0459433 0.0474072 0.0486871 0.0417588 0.0813367 0.0542931 0.0957068 0.0656266 0.0264939 0.0805946 0.0576012 0.0568822 0.0591383 0.0583937 0.072701 0.069431 0.0671442 0.0687185 0.0648546 0.022122 0.0223567 0.0501414 0.0775113 0.0971318 0.0767929 0.0812728 0.0252103 0.0846756 0.0860993 0.0320308 0.0993655 0.0304724 0.0902065 0.10206 0.0290725 0.0938886 0.0931247 0.095074 0.0944753 0.026206 0.0964284 0.101272 0.105951 0.103747 0.104712 0.100617 0.0282807 0.0737534 0.0913068 0.0237132 0.0662508 0.0562547 0.103496 0.104353 0.103484 0.1039 0.0632095 0.103479 0.0452225 0.0467192 0.0480635 0.0494267 0.0508236 0.0521965 0.082649 0.083969 0.085403 0.0868287 0.0881449 0.0267553 0.0556647 0.0259052 0.0438725 0.0798642 0.0917239 0.0923952 0.102951 0.0562688 0.0783441 0.0286033 0.0606745 0.101315 0.0894466 0.101314 0.101094 0.0663184 0.102816 0.0535303 0.0755378 0.101423 0.0615443 0.0743996 0.0231783 0.0640778 0.0286616 0.0602427 0.0888959 0.0674158 0.0714311 0.0705879 0.0411066 0.099612 0.0500261 0.0750056 0.0365828 0.0700011 0.0333813 0.0296576 0.1 0.0378251 0.0305315 0.101673 0.0665152 0.101305 0.0286646 0.0286596 0.0286554 0.0286533 0.028654 0.0286601 0.0286741 0.0286942 0.0287091 0.028703 0.0286676 0.028581 0.0800259 0.0286669 0.0550101 0.0951085 0.101329 0.0600035 0.0625025 0.0525156 0.101326 0.100835 0.0287042 0.0275584 0.0875977 0.0650018 0.10132 0.0725022 0.101324 0.0791081 0.0901274 0.0431848 0.10133 0.0937953 0.0528784 0.097484 0.0575053 0.0825418 0.0775127 0.0850633 0.0286377 0.101334 0.040181 0.0570312 0.1035 0.042957 0.0897236 0.0958876 0.0611213 0.0498232 0.0472758 0.0723081 0.0401826 0.0488523 0.0645648 0.0818508 0.0547777 0.10152 0.0810032 0.0733212 0.0594773 0.0698386 0.0475365 0.0419944 0.0379265 0.0767066 0.0538715 0.0324038 0.0849242 0.0314404 0.100992 0.0354096 0.0262564 0.0991813 0.0970469 0.10164 0.0286482 0.102071 0.0329224 0.0285251 0.0675012 0.0425928 0.0926308 0.100353 0.101202 0.0343749 0.102563 0.0841883 0.0873045 0.0628801 0.0802742 0.0914697 0.044643 0.0924915 0.0579211 0.0480876 0.0508586 0.082651 0.0655629 0.0880852 0.0683142 0.0308032 0.0354821 0.0463913 0.0991465 0.0518596 0.0389984 0.0391671 0.0480608 0.091508 0.0777807 0.0587099 0.045054 0.0981075 0.069093 0.0487939 0.0833638 0.0659197 0.0787342 0.0678807 0.0774466 0.0513789 0.0857777 0.0619779 0.0424651 0.0863765 0.0293704 0.0305232 0.0905082 0.0251745 0.094802 0.103663 0.0559281 0.0762779 0.0537702 0.0865747 0.0668609 0.100345 0.0787738 0.0241639 0.0991611 0.0308187 0.0308138 0.0308114 0.0308131 0.0308251 0.0308539 0.030893 0.0309107 0.0308768 0.0991431 0.063688 0.0438278 0.0612552 0.0512825 0.0991611 0.0277767 0.0981638 0.0308193 0.0662526 0.0637535 0.0991551 0.0750335 0.0965955 0.0991522 0.0795771 0.0625062 0.0907673 0.0889476 0.0339494 0.0455303 0.101722 0.0459363 0.0883371 0.0940311 0.0308351 0.0991584 0.0562622 0.081294 0.0838236 0.0307578 0.0687518 0.0307859 0.0308336 0.0991909 0.0991581 0.099125 0.0449991 0.0717494 0.0707731 0.0411746 0.0503048 0.0491259 0.039809 0.0688258 0.0813986 0.0739453 0.0596516 0.064963 0.0463037 0.0786156 0.0826532 0.0975101 0.0737538 0.0873758 0.0372878 0.0385838 0.0894794 0.0565786 0.0983735 0.0993408 0.0762611 0.0997426 0.0526322 0.0469257 0.0308261 0.0803292 0.0605274 0.0577235 0.0438126 0.0413447 0.058757 0.0712517 0.0437521 0.0349632 0.031287 0.0991529 0.0637165 0.0369087 0.0962892 0.0329819 0.0600102 0.0446279 0.0728268 0.069818 0.0330074 0.0838608 0.0851699 0.047577 0.0507302 0.0677465 0.0999899 0.0328372 0.0998877 0.0919355 0.0306936 0.0525407 0.0329742 0.100974 0.0968203 0.0552923 0.0771469 0.0863263 0.0930629 0.0954426 0.0539251 0.0645498 0.0696771 0.0380232 0.0913698 0.0316583 0.0533838 0.0858962 0.0949637 0.0329687 0.0329651 0.0329665 0.0329899 0.0330512 0.03313 0.0331305 0.0330074 0.0350424 0.0969697 0.0431553 0.0750051 0.0500586 0.0969974 0.0775164 0.0969935 0.0851353 0.0756557 0.0349555 0.0988917 0.0329937 0.0659387 0.0953805 0.0940959 0.102396 0.0826088 0.0630136 0.0360968 0.0969819 0.055026 0.0928294 0.080037 0.0825705 0.0675042 0.0979621 0.0472084 0.0614182 0.0519766 0.096978 0.0365998 0.090376 0.0969682 0.0459064 0.0711657 0.0496141 0.0484488 0.0405522 0.097016 0.0789187 0.0615165 0.0987806 0.0625068 0.0394213 0.0952189 0.0562415 0.0576744 0.0970213 0.0841773 0.0930309 0.0877274 0.0330074 0.0873064 0.0725021 0.09733 0.0450732 0.0399298 0.0547341 0.0587358 0.0575171 0.0885255 0.0650061 0.0743026 0.0700026 0.0794416 0.0969881 0.080893 0.0329633 0.0327381 0.0969837 0.0373948 0.0328976 0.0722431 0.0458359 0.0948437 0.0982938 0.0948016 0.0357935 0.094833 0.0638717 0.0417983 0.0333344 0.0526264 0.0619471 0.0574804 0.0351966 0.0898807 0.0732794 0.0587727 0.0351255 0.0942674 0.0657829 0.0318951 0.0589288 0.0338789 0.0799636 0.0855561 0.0351202 0.0351106 0.0351065 0.035154 0.0352916 0.0354664 0.0662599 0.0439454 0.0602576 0.0838569 0.0762529 0.0304738 0.0392323 0.0375463 0.0709505 0.04223 0.0763544 0.0919466 0.0477283 0.0510698 0.0823148 0.0956189 0.0787681 0.0538015 0.0872069 0.0813 0.0690441 0.090451 0.0596497 0.0887232 0.0425289 0.0562813 0.0351621 0.097148 0.0837419 0.0922551 0.0349307 0.0540992 0.061264 0.0353524 0.0406307 0.035132 0.0412223 0.0351424 0.0946456 0.0891276 0.0949116 0.0381595 0.0351864 0.0948264 0.0864527 0.0557187 0.0737506 0.0671295 0.0463901 0.0488615 0.0513272 0.0637617 0.0687566 0.0962237 0.0963757 0.0782381 0.0947965 0.094851 0.0947858 0.094816 0.0629696 0.0650994 0.0494607 0.0372778 0.0438738 0.0587076 0.0407887 0.0774902 0.0802492 0.0817311 0.0932928 0.0372747 0.0372676 0.0372399 0.0372122 0.0373182 0.0376406 0.0705366 0.0426927 0.0712537 0.0350514 0.0744537 0.0467127 0.0928852 0.0517431 0.0447674 0.037078 0.0751321 0.0853881 0.0401799 0.087196 0.0800057 0.0825453 0.093388 0.0727194 0.0795504 0.0773299 0.0607908 0.0926396 0.0946833 0.0926453 0.050262 0.0427874 0.0927166 0.0372831 0.0600303 0.074993 0.0373311 0.0525927 0.0926842 0.0728033 0.0927535 0.0833644 0.0390475 0.0914796 0.0851189 0.056653 0.0685479 0.0476983 0.0650191 0.053156 0.0485699 0.067515 0.0925735 0.0904914 0.0452626 0.0550593 0.0925667 0.0575441 0.0374422 0.0811158 0.0910296 0.0787012 0.0372966 0.0664667 0.0890118 0.0905473 0.0926013 0.0917197 0.0877583 0.0478194 0.0625215 0.0394181 0.0394253 0.0394132 0.0393355 0.0392303 0.0394979 0.0719372 0.0370063 0.0373673 0.0387226 0.0852061 0.0501394 0.0547819 0.064265 0.0907163 0.0409234 0.0812034 0.0905968 0.0927749 0.0394378 0.07622 0.0418623 0.0762034 0.0489616 0.0786681 0.0906315 0.0725033 0.0394862 0.0465549 0.0889889 0.049828 0.0872268 0.0637835 0.0830123 0.0457013 0.0394174 0.0837327 0.051647 0.0575759 0.062012 0.0700107 0.0393832 0.0701449 0.0538588 0.0514062 0.0662783 0.0588099 0.0433938 0.0903416 0.0597809 0.0903545 0.0739083 0.0563297 0.0803579 0.0399941 0.0722646 0.068027 0.0892082 0.0863092 0.0492892 0.0415511 0.0853999 0.0884154 0.0394257 0.0415917 0.0415607 0.0413515 0.041033 0.0502344 0.0612961 0.0901921 0.0657082 0.0798539 0.0886697 0.0418687 0.0871421 0.063352 0.0441934 0.052697 0.0774969 0.0600842 0.0625605 0.0737496 0.0477584 0.0469454 0.0873376 0.0515055 0.055395 0.0576096 0.0904441 0.0903366 0.0415353 0.061015 0.0882733 0.0826048 0.0823066 0.0415563 0.0444731 0.0747902 0.0650483 0.0533835 0.0774147 0.0687753 0.0887725 0.0880793 0.0551449 0.0586723 0.056287 0.0415628 0.0673081 0.0700521 0.0510754 0.0791928 0.0599712 0.084765 0.0648012 0.0879475 0.0436866 0.0712686 0.0438255 0.043661 0.0613581 0.0415477 0.0536699 0.0859679 0.0729412 0.0759005 0.0515888 0.0453368 0.0835026 0.0429691 0.0808872 0.0623735 0.0883241 0.0854983 0.0485641 0.0415297 0.085916 0.0436143 0.0436644 0.043667 0.058894 0.0638295 0.0490784 0.0749905 0.0675454 0.0863074 0.0880128 0.0430488 0.0540257 0.057587 0.0785509 0.0457913 0.0528151 0.0613473 0.0808578 0.0854287 0.0881485 0.0662764 0.0459107 0.0436419 0.0462884 0.0436463 0.0637619 0.0551998 0.0711459 0.056447 0.0824017 0.0831453 0.068815 0.0780248 0.0733197 0.0530055 0.0504114 0.0795776 0.0796958 0.0700464 0.0457544 0.083604 0.0456201 0.05063 0.0725358 0.045715 0.0626295 0.0663187 0.0814531 0.0837714 0.0589655 0.0762364 0.0601732 0.0521023 0.0775674 0.0479935 0.0859755 0.048243 0.07075 0.0858877 0.0837958 0.0553653 0.0650982 0.054375 0.0521222 0.0755446 0.0677786 0.0498613 0.0837062 0.0814657 0.081538 0.0688239 0.0614448 0.0577484 0.0456743 0.045804 0.0476805 0.0477615 0.0638876 0.0543891 0.0651543 0.0793554 0.073654 0.0626783 0.0603375 0.0566462 0.0738307 0.0766903 0.0513855 0.0836652 0.0752204 0.0499367 0.0590173 0.071343 0.0716584 0.0664662 0.0690692 0.0639314 0.0515443 0.0663613 0.0535986 0.0790195 0.0477672 0.0675931 0.0473559 0.0602818 0.0769639 0.0626821 0.0534815 0.0813026 0.0742439 0.0615147 0.056656 0.0580445 0.0688578 0.0525371 0.0493907 0.0812405 0.0701172 0.0651567 0.0726991 0.0493687 0.0558483 0.0578674 0.0651391 0.0500867 0.0790525 0.0723673 0.0742343 0.0482073 0.067624 0.0509599 0.0593982 0.0550282 0.0676836 0.0625937 0.0765143 0.0701538 0.0614349 0.0537467 0.0741815 0.0765522 0.0786054 0.0555645 0.0591821 0.0713856 0.0639036 0.0574179 0.0742035 0.0717195 0.0664088 0.0760715 0.0597629 0.0700905 0.0568482 0.0723392 0.0689552 