
TITLE     = "DG2D to Tecplot"
VARIABLES = "X", "Y", "RHO", "U" ,"V", "VELOCITY_MAG", "P", "T", "THETA1", "THETA2"
ZONE T="ZONE 1"
ZONETYPE=FEQUADRILATERAL
DATAPACKING=BLOCK
VARLOCATION=([1,2]=nodal,[3,4,5,6,7,8,9,10]=cellcentered)
NODES=10201, ELEMENTS=20000
0 1.08304e-16 -0.02 -0.04 -0.000314146 -0.000628215 -0.000942129 -0.00125581 -0.00156918 -0.00188217 -0.00219469 -0.00250666 -0.00281802 -0.00312869 -0.00343858 -0.00374763 -0.00405575 -0.00436286 -0.00466891 -0.0049738 -0.00527746 -0.00557982 -0.00588081 -0.00618034 -0.00647835 -0.00677476 -0.0070695 -0.00736249 -0.00765367 -0.00794296 -0.00823029 -0.00851559 -0.00879878 -0.00907981 -0.0093586 -0.00963507 -0.00990917 -0.0101808 -0.01045 -0.0107165 -0.0109805 -0.0112417 -0.0115001 -0.0117557 -0.0120084 -0.0122581 -0.0125049 -0.0127485 -0.012989 -0.0132262 -0.0134603 -0.0136909 -0.0139183 -0.0141421 -0.0143625 -0.0145794 -0.0147926 -0.0150022 -0.0152081 -0.0154103 -0.0156086 -0.0158031 -0.0159937 -0.0161803 -0.016363 -0.0165416 -0.0167161 -0.0168866 -0.0170528 -0.0172148 -0.0173726 -0.0175261 -0.0176753 -0.0178201 -0.0179606 -0.0180965 -0.0182281 -0.0183551 -0.0184776 -0.0185955 -0.0187089 -0.0188176 -0.0189217 -0.0190211 -0.0191159 -0.0192059 -0.0192911 -0.0193717 -0.0194474 -0.0195183 -0.0195845 -0.0196457 -0.0197022 -0.0197538 -0.0198005 -0.0198423 -0.0198792 -0.0199112 -0.0199383 -0.0199605 -0.0199778 -0.0199901 -0.0199975 -0.000750703 -0.00150091 -0.00225011 -0.00299783 -0.00374357 -0.00448685 -0.00522722 -0.00596421 -0.00669738 -0.0074263 -0.00815057 -0.00886979 -0.00958359 -0.0102916 -0.0109935 -0.011689 -0.0123778 -0.0130596 -0.0137341 -0.0144011 -0.0150604 -0.0157118 -0.0163551 -0.0169902 -0.0176169 -0.018235 -0.0188445 -0.0194453 -0.0200372 -0.0206201 -0.0211942 -0.0217591 -0.022315 -0.0228618 -0.0233995 -0.023928 -0.0244473 -0.0249575 -0.0254585 -0.0259503 -0.026433 -0.0269066 -0.0273711 -0.0278265 -0.0282728 -0.0287101 -0.0291385 -0.0295578 -0.0299683 -0.0303699 -0.0307627 -0.0311467 -0.0315219 -0.0318884 -0.0322463 -0.0325956 -0.0329362 -0.0332684 -0.033592 -0.0339073 -0.0342141 -0.0345126 -0.0348027 -0.0350846 -0.0353583 -0.0356238 -0.0358811 -0.0361303 -0.0363714 -0.0366046 -0.0368297 -0.0370468 -0.037256 -0.0374573 -0.0376508 -0.0378364 -0.0380142 -0.0381843 -0.0383465 -0.0385011 -0.038648 -0.0387871 -0.0389187 -0.0390426 -0.0391589 -0.0392676 -0.0393687 -0.0394623 -0.0395483 -0.0396268 -0.0396978 -0.0397613 -0.0398173 -0.0398658 -0.0399068 -0.0399404 -0.0399665 -0.0399851 -0.0399963 -3.88578e-16 -3.88578e-16 -3.88578e-16 -3.88578e-16 -3.88578e-16 -3.88578e-16 -3.88578e-16 -3.88578e-16 -3.88578e-16 -3.88578e-16 -3.88578e-16 -3.88578e-16 -3.88578e-16 -3.88578e-16 -3.88578e-16 -3.88578e-16 -3.88578e-16 -3.88578e-16 -3.88578e-16 -3.88578e-16 -3.88578e-16 -3.88578e-16 -3.88578e-16 -3.88578e-16 -3.88578e-16 -3.88578e-16 -3.88578e-16 -3.88578e-16 -3.88578e-16 -3.88578e-16 -3.88578e-16 -3.88578e-16 -3.88578e-16 -3.88578e-16 -3.88578e-16 -3.88578e-16 -3.88578e-16 -3.88578e-16 -3.88578e-16 -3.88578e-16 -3.88578e-16 -3.88578e-16 -3.88578e-16 -3.88578e-16 -3.88578e-16 -3.88578e-16 -3.88578e-16 -3.88578e-16 -3.88578e-16 -3.88578e-16 -3.88578e-16 -3.88578e-16 -3.88578e-16 -3.88578e-16 -3.88578e-16 -3.88578e-16 -3.88578e-16 -3.88578e-16 -3.88578e-16 -3.88578e-16 -3.88578e-16 -3.88578e-16 -3.88578e-16 -3.88578e-16 -3.88578e-16 -3.88578e-16 -3.88578e-16 -3.88578e-16 -3.88578e-16 -3.88578e-16 -3.88578e-16 -3.88578e-16 -3.88578e-16 -3.88578e-16 -3.88578e-16 -3.88578e-16 -3.88578e-16 -3.88578e-16 -3.88578e-16 -3.88578e-16 -3.88578e-16 -3.88578e-16 -3.88578e-16 -3.88578e-16 -3.88578e-16 -3.88578e-16 -3.88578e-16 -3.88578e-16 -3.88578e-16 -3.88578e-16 -3.88578e-16 -3.88578e-16 -3.88578e-16 -3.88578e-16 -3.88578e-16 -3.88578e-16 -3.88578e-16 -3.88578e-16 -3.88578e-16 -0.0393735 -0.0387656 -0.0381759 -0.0376037 -0.0370486 -0.0365101 -0.0359876 -0.0354806 -0.0349888 -0.0345117 -0.0340487 -0.0335996 -0.0331638 -0.0327411 -0.0323309 -0.031933 -0.0315469 -0.0311723 -0.0308089 -0.0304564 -0.0301143 -0.0297824 -0.0294605 -0.0291481 -0.028845 -0.028551 -0.0282657 -0.0279889 -0.0277204 -0.0274599 -0.0272072 -0.026962 -0.0267241 -0.0264932 -0.0262693 -0.026052 -0.0258413 -0.0256368 -0.0254384 -0.0252459 -0.0250591 -0.0248779 -0.0247021 -0.0245316 -0.0243661 -0.0242056 -0.0240498 -0.0238987 -0.0237521 -0.0236099 -0.0234719 -0.023338 -0.0232081 -0.0230821 -0.0229599 -0.0228413 -0.0227262 -0.0226145 -0.0225062 -0.0224011 -0.0222991 -0.0222002 -0.0221042 -0.0220111 -0.0219208 -0.0218331 -0.0217481 -0.0216656 -0.0215856 -0.0215079 -0.0214326 -0.0213595 -0.0212886 -0.0212198 -0.021153 -0.0210883 -0.0210254 -0.0209645 -0.0209053 -0.020848 -0.0207923 -0.0207383 -0.0206859 -0.0206351 -0.0205857 -0.0205379 -0.0204915 -0.0204464 -0.0204027 -0.0203603 -0.0203192 -0.0202793 -0.0202406 -0.020203 -0.0201666 -0.0201312 -0.0200969 -0.0200636 -0.0200313 -0.00031483 -0.000629582 -0.000944178 -0.00125854 -0.00157259 -0.00188625 -0.00219944 -0.00251208 -0.0028241 -0.00313542 -0.00344596 -0.00375565 -0.0040644 -0.00437215 -0.00467881 -0.00498432 -0.00528858 -0.00559154 -0.00589311 -0.00619322 -0.00649179 -0.00678876 -0.00708404 -0.00737757 -0.00766927 -0.00795908 -0.00824691 -0.00853271 -0.00881639 -0.00909789 -0.00937713 -0.00965406 -0.0099286 -0.0102007 -0.0104703 -0.0107372 -0.0110015 -0.0112632 -0.011522 -0.0117779 -0.012031 -0.0122811 -0.0125281 -0.0127721 -0.0130129 -0.0132505 -0.0134848 -0.0137158 -0.0139434 -0.0141676 -0.0143882 -0.0146053 -0.0148188 -0.0150287 -0.0152348 -0.0154372 -0.0156357 -0.0158305 -0.0160213 -0.0162081 -0.016391 -0.0165698 -0.0167445 -0.0169151 -0.0170815 -0.0172437 -0.0174016 -0.0175553 -0.0177046 -0.0178496 -0.0179901 -0.0181262 -0.0182579 -0.018385 -0.0185076 -0.0186257 -0.0187391 -0.0188479 -0.0189521 -0.0190516 -0.0191465 -0.0192365 -0.0193219 -0.0194025 -0.0194783 -0.0195493 -0.0196154 -0.0196768 -0.0197333 -0.0197849 -0.0198316 -0.0198735 -0.0199104 -0.0199425 -0.0199696 -0.0199918 -0.0200091 -0.0200214 -0.0200289 -0.000315535 -0.000630991 -0.000946289 -0.00126135 -0.0015761 -0.00189045 -0.00220433 -0.00251766 -0.00283036 -0.00314236 -0.00345357 -0.00376392 -0.00407333 -0.00438172 -0.00468902 -0.00499516 -0.00530005 -0.00560361 -0.00590579 -0.00620649 -0.00650565 -0.00680318 -0.00709903 -0.00739311 -0.00768536 -0.00797569 -0.00826405 -0.00855035 -0.00883453 -0.00911652 -0.00939624 -0.00967364 -0.00994863 -0.0102212 -0.0104912 -0.0107586 -0.0110233 -0.0112853 -0.0115445 -0.0118009 -0.0120543 -0.0123047 -0.0125521 -0.0127964 -0.0130376 -0.0132755 -0.0135101 -0.0137414 -0.0139693 -0.0141938 -0.0144147 -0.0146321 -0.0148458 -0.0150559 -0.0152623 -0.0154649 -0.0156637 -0.0158587 -0.0160497 -0.0162367 -0.0164198 -0.0165988 -0.0167737 -0.0169444 -0.017111 -0.0172734 -0.0174315 -0.0175853 -0.0177348 -0.0178799 -0.0180206 -0.0181568 -0.0182886 -0.0184159 -0.0185386 -0.0186567 -0.0187703 -0.0188792 -0.0189835 -0.0190831 -0.019178 -0.0192682 -0.0193536 -0.0194342 -0.0195101 -0.0195812 -0.0196474 -0.0197088 -0.0197653 -0.019817 -0.0198638 -0.0199057 -0.0199426 -0.0199747 -0.0200019 -0.0200241 -0.0200414 -0.0200537 -0.0200611 -0.000316261 -0.000632443 -0.000948466 -0.00126425 -0.00157972 -0.00189479 -0.00220938 -0.00252342 -0.00283682 -0.00314951 -0.00346141 -0.00377244 -0.00408253 -0.00439159 -0.00469955 -0.00500633 -0.00531186 -0.00561606 -0.00591885 -0.00622017 -0.00651993 -0.00681806 -0.00711448 -0.00740914 -0.00770194 -0.00799282 -0.00828171 -0.00856854 -0.00885323 -0.00913572 -0.00941594 -0.00969381 -0.00996928 -0.0102423 -0.0105127 -0.0107805 -0.0110457 -0.0113081 -0.0115677 -0.0118245 -0.0120783 -0.0123291 -0.0125769 -0.0128215 -0.013063 -0.0133013 -0.0135362 -0.0137678 -0.013996 -0.0142208 -0.014442 -0.0146596 -0.0148737 -0.015084 -0.0152907 -0.0154935 -0.0156926 -0.0158877 -0.016079 -0.0162662 -0.0164495 -0.0166287 -0.0168038 -0.0169747 -0.0171415 -0.017304 -0.0174623 -0.0176163 -0.0177659 -0.0179111 -0.018052 -0.0181884 -0.0183203 -0.0184476 -0.0185705 -0.0186887 -0.0188024 -0.0189114 -0.0190158 -0.0191155 -0.0192105 -0.0193007 -0.0193862 -0.019467 -0.0195429 -0.019614 -0.0196803 -0.0197418 -0.0197983 -0.01985 -0.0198969 -0.0199388 -0.0199758 -0.0200079 -0.0200351 -0.0200573 -0.0200746 -0.020087 -0.0200944 -0.00031701 -0.00063394 -0.000950709 -0.00126724 -0.00158345 -0.00189925 -0.00221458 -0.00252935 -0.00284347 -0.00315688 -0.00346949 -0.00378123 -0.00409201 -0.00440176 -0.0047104 -0.00501785 -0.00532404 -0.00562889 -0.00593232 -0.00623427 -0.00653465 -0.00683339 -0.00713041 -0.00742565 -0.00771903 -0.00801047 -0.00829992 -0.00858728 -0.00887251 -0.00915551 -0.00943624 -0.00971461 -0.00999056 -0.010264 -0.0105349 -0.0108032 -0.0110688 -0.0113316 -0.0115917 -0.0118488 -0.012103 -0.0123542 -0.0126024 -0.0128474 -0.0130892 -0.0133278 -0.0135631 -0.013795 -0.0140235 -0.0142486 -0.0144701 -0.0146881 -0.0149024 -0.015113 -0.0153199 -0.015523 -0.0157223 -0.0159177 -0.0161091 -0.0162966 -0.0164801 -0.0166595 -0.0168348 -0.0170059 -0.0171729 -0.0173356 -0.017494 -0.0176482 -0.017798 -0.0179434 -0.0180843 -0.0182209 -0.0183529 -0.0184804 -0.0186034 -0.0187217 -0.0188355 -0.0189447 -0.0190491 -0.0191489 -0.019244 -0.0193343 -0.0194199 -0.0195007 -0.0195767 -0.0196479 -0.0197142 -0.0197757 -0.0198324 -0.0198841 -0.019931 -0.019973 -0.02001 -0.0200421 -0.0200693 -0.0200916 -0.0201089 -0.0201213 -0.0201287 -0.000317782 -0.000635483 -0.000953022 -0.00127032 -0.00158729 -0.00190386 -0.00221994 -0.00253546 -0.00285033 -0.00316448 -0.00347782 -0.00379028 -0.00410178 -0.00441224 -0.00472158 -0.00502972 -0.00533659 -0.00564211 -0.00594621 -0.0062488 -0.00654982 -0.00684918 -0.00714683 -0.00744267 -0.00773664 -0.00802867 -0.00831868 -0.00860661 -0.00889237 -0.00917592 -0.00945716 -0.00973604 -0.0100125 -0.0102864 -0.0105578 -0.0108266 -0.0110926 -0.0113559 -0.0116163 -0.0118739 -0.0121285 -0.0123801 -0.0126287 -0.012874 -0.0131162 -0.0133552 -0.0135908 -0.0138231 -0.0140519 -0.0142773 -0.0144991 -0.0147173 -0.0149319 -0.0151428 -0.01535 -0.0155534 -0.0157529 -0.0159485 -0.0161402 -0.016328 -0.0165117 -0.0166913 -0.0168668 -0.0170381 -0.0172052 -0.0173681 -0.0175268 -0.0176811 -0.017831 -0.0179766 -0.0181177 -0.0182544 -0.0183865 -0.0185142 -0.0186373 -0.0187558 -0.0188697 -0.0189789 -0.0190835 -0.0191834 -0.0192785 -0.0193689 -0.0194546 -0.0195355 -0.0196116 -0.0196828 -0.0197492 -0.0198108 -0.0198675 -0.0199193 -0.0199662 -0.0200082 -0.0200453 -0.0200774 -0.0201046 -0.0201269 -0.0201443 -0.0201566 -0.0201641 -0.000318577 -0.000637073 -0.000955405 -0.00127349 -0.00159125 -0.0019086 -0.00222547 -0.00254176 -0.0028574 -0.00317231 -0.00348641 -0.00379962 -0.00411185 -0.00442304 -0.0047331 -0.00504196 -0.00534953 -0.00565574 -0.00596052 -0.00626378 -0.00656546 -0.00686547 -0.00716375 -0.00746021 -0.00775479 -0.00804742 -0.00833802 -0.00862652 -0.00891285 -0.00919694 -0.00947873 -0.00975813 -0.0100351 -0.0103095 -0.0105814 -0.0108506 -0.0111171 -0.0113809 -0.0116418 -0.0118998 -0.0121548 -0.0124068 -0.0126557 -0.0129015 -0.0131441 -0.0133834 -0.0136194 -0.013852 -0.0140812 -0.0143068 -0.014529 -0.0147475 -0.0149624 -0.0151736 -0.0153811 -0.0155847 -0.0157845 -0.0159804 -0.0161723 -0.0163603 -0.0165442 -0.016724 -0.0168997 -0.0170713 -0.0172386 -0.0174017 -0.0175605 -0.017715 -0.0178651 -0.0180108 -0.0181521 -0.0182889 -0.0184212 -0.018549 -0.0186722 -0.0187908 -0.0189048 -0.0190142 -0.0191189 -0.0192189 -0.0193141 -0.0194046 -0.0194904 -0.0195713 -0.0196475 -0.0197188 -0.0197853 -0.0198469 -0.0199036 -0.0199555 -0.0200024 -0.0200445 -0.0200816 -0.0201138 -0.020141 -0.0201633 -0.0201807 -0.0201931 -0.0202005 -0.000319397 -0.000638712 -0.000957862 -0.00127676 -0.00159534 
-0.0019135 -0.00223116 -0.00254825 -0.00286469 -0.00318038 -0.00349526 -0.00380924 -0.00412224 -0.00443418 -0.00474498 -0.00505457 -0.00536286 -0.00566979 -0.00597527 -0.00627922 -0.00658157 -0.00688225 -0.00718119 -0.00747829 -0.00777351 -0.00806675 -0.00835796 -0.00864705 -0.00893396 -0.00921862 -0.00950096 -0.0097809 -0.0100584 -0.0103334 -0.0106057 -0.0108754 -0.0111424 -0.0114066 -0.011668 -0.0119264 -0.0121819 -0.0124343 -0.0126837 -0.0129298 -0.0131728 -0.0134125 -0.0136488 -0.0138818 -0.0141113 -0.0143373 -0.0145598 -0.0147786 -0.0149938 -0.0152053 -0.0154131 -0.015617 -0.015817 -0.0160132 -0.0162054 -0.0163936 -0.0165777 -0.0167578 -0.0169337 -0.0171054 -0.017273 -0.0174363 -0.0175953 -0.0177499 -0.0179002 -0.0180461 -0.0181875 -0.0183245 -0.0184569 -0.0185849 -0.0187082 -0.018827 -0.0189411 -0.0190506 -0.0191554 -0.0192554 -0.0193508 -0.0194414 -0.0195272 -0.0196083 -0.0196845 -0.0197559 -0.0198224 -0.0198841 -0.0199409 -0.0199928 -0.0200398 -0.0200819 -0.020119 -0.0201513 -0.0201785 -0.0202009 -0.0202182 -0.0202306 -0.0202381 -0.000320242 -0.000640401 -0.000960394 -0.00128014 -0.00159954 -0.00191854 -0.00223703 -0.00255495 -0.0028722 -0.0031887 -0.00350438 -0.00381915 -0.00413294 -0.00444565 -0.00475722 -0.00506757 -0.00537661 -0.00568427 -0.00599047 -0.00629513 -0.00659819 -0.00689956 -0.00719916 -0.00749693 -0.00779279 -0.00808668 -0.0083785 -0.00866821 -0.00895572 -0.00924096 -0.00952387 -0.00980437 -0.0100824 -0.0103579 -0.0106308 -0.010901 -0.0111685 -0.0114332 -0.011695 -0.0119539 -0.0122098 -0.0124627 -0.0127124 -0.012959 -0.0132024 -0.0134425 -0.0136792 -0.0139125 -0.0141424 -0.0143687 -0.0145915 -0.0148107 -0.0150262 -0.015238 -0.015446 -0.0156502 -0.0158506 -0.016047 -0.0162394 -0.0164279 -0.0166123 -0.0167926 -0.0169687 -0.0171407 -0.0173084 -0.0174719 -0.0176311 -0.0177859 -0.0179364 -0.0180824 -0.018224 -0.0183612 -0.0184938 -0.0186218 -0.0187453 -0.0188642 -0.0189785 -0.0190881 -0.019193 -0.0192931 -0.0193886 -0.0194793 -0.0195652 -0.0196463 -0.0197226 -0.0197941 -0.0198607 -0.0199225 -0.0199793 -0.0200313 -0.0200783 -0.0201204 -0.0201576 -0.0201899 -0.0202172 -0.0202395 -0.0202569 -0.0202693 -0.0202768 -0.000321113 -0.000642143 -0.000963003 -0.00128361 -0.00160388 -0.00192374 -0.00224308 -0.00256184 -0.00287994 -0.00319728 -0.00351378 -0.00382937 -0.00414397 -0.00445748 -0.00476984 -0.00508097 -0.00539078 -0.00569919 -0.00600614 -0.00631154 -0.00661531 -0.00691739 -0.00721769 -0.00751614 -0.00781267 -0.00810721 -0.00839968 -0.00869002 -0.00897814 -0.00926399 -0.00954748 -0.00982856 -0.0101072 -0.0103832 -0.0106566 -0.0109274 -0.0111954 -0.0114606 -0.0117229 -0.0119822 -0.0122386 -0.0124919 -0.0127421 -0.0129891 -0.0132329 -0.0134733 -0.0137105 -0.0139442 -0.0141744 -0.0144011 -0.0146243 -0.0148438 -0.0150596 -0.0152717 -0.01548 -0.0156845 -0.0158851 -0.0160818 -0.0162746 -0.0164632 -0.0166479 -0.0168284 -0.0170048 -0.017177 -0.0173449 -0.0175086 -0.017668 -0.017823 -0.0179737 -0.0181199 -0.0182617 -0.018399 -0.0185317 -0.01866 -0.0187836 -0.0189026 -0.019017 -0.0191267 -0.0192317 -0.019332 -0.0194276 -0.0195184 -0.0196044 -0.0196856 -0.019762 -0.0198335 -0.0199002 -0.019962 -0.0200189 -0.0200709 -0.020118 -0.0201602 -0.0201974 -0.0202297 -0.020257 -0.0202794 -0.0202968 -0.0203092 -0.0203167 -0.000322011 -0.000643937 -0.000965694 -0.00128719 -0.00160836 -0.00192909 -0.00224932 -0.00256896 -0.00288791 -0.00320611 -0.00352347 -0.00383991 -0.00415534 -0.00446968 -0.00478285 -0.00509478 -0.00540538 -0.00571458 -0.00602229 -0.00632844 -0.00663296 -0.00693577 -0.00723679 -0.00753594 -0.00783316 -0.00812838 -0.00842151 -0.00871249 -0.00900125 -0.00928772 -0.00957182 -0.0098535 -0.0101327 -0.0104093 -0.0106833 -0.0109546 -0.0112231 -0.0114888 -0.0117516 -0.0120114 -0.0122683 -0.012522 -0.0127727 -0.0130201 -0.0132643 -0.0135052 -0.0137427 -0.0139768 -0.0142074 -0.0144345 -0.014658 -0.0148778 -0.015094 -0.0153064 -0.0155151 -0.0157199 -0.0159208 -0.0161178 -0.0163107 -0.0164997 -0.0166846 -0.0168654 -0.017042 -0.0172144 -0.0173826 -0.0175465 -0.0177061 -0.0178613 -0.0180121 -0.0181585 -0.0183005 -0.0184379 -0.0185709 -0.0186992 -0.018823 -0.0189422 -0.0190567 -0.0191665 -0.0192717 -0.0193721 -0.0194677 -0.0195586 -0.0196448 -0.0197261 -0.0198025 -0.0198741 -0.0199409 -0.0200028 -0.0200597 -0.0201118 -0.0201589 -0.0202012 -0.0202384 -0.0202707 -0.0202981 -0.0203205 -0.0203379 -0.0203504 -0.0203578 -0.000322937 -0.000645787 -0.000968466 -0.00129089 -0.00161296 -0.00193461 -0.00225575 -0.00257628 -0.00289614 -0.00321522 -0.00353346 -0.00385076 -0.00416705 -0.00448224 -0.00479626 -0.00510901 -0.00542043 -0.00573043 -0.00603894 -0.00634587 -0.00665115 -0.00695471 -0.00725647 -0.00755635 -0.00785428 -0.0081502 -0.00844401 -0.00873566 -0.00902508 -0.00931218 -0.00959691 -0.0098792 -0.010159 -0.0104362 -0.0107107 -0.0109826 -0.0112516 -0.0115178 -0.0117812 -0.0120415 -0.0122989 -0.0125531 -0.0128042 -0.0130521 -0.0132967 -0.013538 -0.0137759 -0.0140104 -0.0142414 -0.0144689 -0.0146928 -0.014913 -0.0151295 -0.0153422 -0.0155512 -0.0157563 -0.0159575 -0.0161548 -0.016348 -0.0165373 -0.0167224 -0.0169035 -0.0170803 -0.017253 -0.0174214 -0.0175855 -0.0177453 -0.0179007 -0.0180518 -0.0181984 -0.0183405 -0.0184781 -0.0186112 -0.0187397 -0.0188637 -0.018983 -0.0190976 -0.0192076 -0.0193128 -0.0194134 -0.0195092 -0.0196002 -0.0196864 -0.0197678 -0.0198443 -0.019916 -0.0199828 -0.0200448 -0.0201018 -0.0201539 -0.0202011 -0.0202434 -0.0202807 -0.020313 -0.0203404 -0.0203628 -0.0203803 -0.0203927 -0.0204002 -0.000323891 -0.000647694 -0.000971324 -0.00129469 -0.00161772 -0.0019403 -0.00226237 -0.00258384 -0.00290461 -0.00322461 -0.00354376 -0.00386196 -0.00417913 -0.0044952 -0.00481008 -0.00512369 -0.00543594 -0.00574677 -0.0060561 -0.00636383 -0.00666991 -0.00697424 -0.00727676 -0.00757739 -0.00787605 -0.00817268 -0.0084672 -0.00875954 -0.00904963 -0.0093374 -0.00962277 -0.00990569 -0.0101861 -0.0104639 -0.010739 -0.0110114 -0.011281 -0.0115478 -0.0118117 -0.0120725 -0.0123304 -0.0125851 -0.0128367 -0.013085 -0.0133301 -0.0135718 -0.0138102 -0.0140451 -0.0142765 -0.0145044 -0.0147286 -0.0149492 -0.015166 -0.0153791 -0.0155884 -0.0157939 -0.0159954 -0.0161929 -0.0163865 -0.016576 -0.0167614 -0.0169427 -0.0171199 -0.0172928 -0.0174614 -0.0176257 -0.0177858 -0.0179414 -0.0180926 -0.0182394 -0.0183817 -0.0185195 -0.0186528 -0.0187815 -0.0189055 -0.019025 -0.0191398 -0.0192499 -0.0193553 -0.0194559 -0.0195518 -0.0196429 -0.0197292 -0.0198107 -0.0198874 -0.0199592 -0.0200261 -0.0200881 -0.0201452 -0.0201973 -0.0202446 -0.0202869 -0.0203242 -0.0203566 -0.0203841 -0.0204065 -0.020424 -0.0204364 -0.0204439 -0.000324874 -0.00064966 -0.00097427 -0.00129862 -0.00162261 -0.00194617 -0.0022692 -0.00259163 -0.00291335 -0.00323429 -0.00355437 -0.00387349 -0.00419158 -0.00450855 -0.00482432 -0.00513881 -0.00545194 -0.00576362 -0.00607378 -0.00638235 -0.00668923 -0.00699437 -0.00729767 -0.00759907 -0.00789849 -0.00819586 -0.00849111 -0.00878416 -0.00907494 -0.00936339 -0.00964943 -0.00993299 -0.010214 -0.0104924 -0.0107682 -0.0110412 -0.0113114 -0.0115787 -0.0118431 -0.0121045 -0.0123629 -0.0126181 -0.0128702 -0.013119 -0.0133645 -0.0136067 -0.0138455 -0.0140808 -0.0143126 -0.0145409 -0.0147655 -0.0149865 -0.0152037 -0.0154172 -0.0156268 -0.0158326 -0.0160344 -0.0162323 -0.0164261 -0.0166159 -0.0168016 -0.0169832 -0.0171606 -0.0173337 -0.0175026 -0.0176672 -0.0178274 -0.0179833 -0.0181347 -0.0182817 -0.0184242 -0.0185622 -0.0186956 -0.0188245 -0.0189487 -0.0190683 -0.0191833 -0.0192935 -0.019399 -0.0194998 -0.0195958 -0.019687 -0.0197734 -0.019855 -0.0199318 -0.0200036 -0.0200706 -0.0201327 -0.0201899 -0.0202421 -0.0202894 -0.0203318 -0.0203692 -0.0204016 -0.020429 -0.0204515 -0.020469 -0.0204815 -0.020489 -0.000325887 -0.000651685 -0.000977306 -0.00130266 -0.00162766 -0.00195222 -0.00227624 -0.00259965 -0.00292236 -0.00324427 -0.00356531 -0.00388538 -0.00420441 -0.00452231 -0.004839 -0.0051544 -0.00546842 -0.00578098 -0.00609201 -0.00640143 -0.00670915 -0.00701511 -0.00731922 -0.00762142 -0.00792162 -0.00821975 -0.00851575 -0.00880953 -0.00910103 -0.00939018 -0.0096769 -0.00996114 -0.0102428 -0.0105219 -0.0107982 -0.0110718 -0.0113426 -0.0116105 -0.0118755 -0.0121375 -0.0123963 -0.0126521 -0.0129047 -0.013154 -0.0134 -0.0136427 -0.0138819 -0.0141177 -0.0143499 -0.0145786 -0.0148036 -0.0150249 -0.0152425 -0.0154564 -0.0156663 -0.0158724 -0.0160746 -0.0162728 -0.016467 -0.0166571 -0.0168431 -0.0170249 -0.0172026 -0.017376 -0.0175451 -0.0177099 -0.0178704 -0.0180265 -0.0181781 -0.0183253 -0.018468 -0.0186062 -0.0187398 -0.0188688 -0.0189932 -0.019113 -0.0192281 -0.0193385 -0.0194441 -0.019545 -0.0196412 -0.0197325 -0.019819 -0.0199007 -0.0199775 -0.0200495 -0.0201165 -0.0201787 -0.0202359 -0.0202882 -0.0203356 -0.020378 -0.0204154 -0.0204479 -0.0204754 -0.0204979 -0.0205154 -0.0205279 -0.0205354 -0.000326932 -0.000653773 -0.000980435 -0.00130683 -0.00163286 -0.00195845 -0.0022835 -0.00260792 -0.00293164 -0.00325455 -0.00357658 -0.00389764 -0.00421764 -0.0045365 -0.00485413 -0.00517046 -0.0054854 -0.00579888 -0.0061108 -0.0064211 -0.00672969 -0.00703649 -0.00734144 -0.00764445 -0.00794546 -0.00824438 -0.00854114 -0.00883568 -0.00912792 -0.00941779 -0.00970522 -0.00999014 -0.0102725 -0.0105522 -0.0108292 -0.0111035 -0.0113749 -0.0116434 -0.0119089 -0.0121714 -0.0124309 -0.0126871 -0.0129402 -0.0131901 -0.0134366 -0.0136797 -0.0139194 -0.0141556 -0.0143883 -0.0146174 -0.0148428 -0.0150646 -0.0152826 -0.0154968 -0.0157071 -0.0159136 -0.0161161 -0.0163146 -0.0165091 -0.0166995 -0.0168858 -0.0170679 -0.0172458 -0.0174195 -0.0175889 -0.017754 -0.0179147 -0.018071 -0.0182229 -0.0183703 -0.0185132 -0.0186515 -0.0187853 -0.0189145 -0.0190391 -0.019159 -0.0192743 -0.0193848 -0.0194906 -0.0195916 -0.0196879 -0.0197793 -0.019866 -0.0199478 -0.0200247 -0.0200967 -0.0201639 -0.0202261 -0.0202834 -0.0203358 -0.0203832 -0.0204257 -0.0204631 -0.0204956 -0.0205232 -0.0205457 -0.0205632 -0.0205757 -0.0205832 -0.000328008 -0.000655925 -0.000983661 -0.00131112 -0.00163822 -0.00196487 -0.00229098 -0.00261645 -0.0029412 -0.00326515 -0.0035882 -0.00391027 -0.00423127 -0.00455112 -0.00486973 -0.00518702 -0.00550291 -0.00581732 -0.00613017 -0.00644137 -0.00675085 -0.00705853 -0.00736434 -0.0076682 -0.00797003 -0.00826976 -0.00856732 -0.00886263 -0.00915563 -0.00944625 -0.00973441 -0.01002 -0.0103031 -0.0105835 -0.0108612 -0.011136 -0.0114081 -0.0116772 -0.0119433 -0.0122064 -0.0124664 -0.0127233 -0.0129769 -0.0132272 -0.0134743 -0.0137179 -0.0139581 -0.0141948 -0.0144279 -0.0146574 -0.0148833 -0.0151054 -0.0153238 -0.0155384 -0.0157491 -0.0159559 -0.0161588 -0.0163577 -0.0165525 -0.0167432 -0.0169298 -0.0171122 -0.0172904 -0.0174644 -0.017634 -0.0177994 -0.0179603 -0.0181169 -0.018269 -0.0184166 -0.0185597 -0.0186983 -0.0188323 -0.0189616 -0.0190864 -0.0192065 -0.0193219 -0.0194326 -0.0195385 -0.0196397 -0.0197361 -0.0198276 -0.0199144 -0.0199963 -0.0200733 -0.0201454 -0.0202127 -0.020275 -0.0203324 -0.0203848 -0.0204323 -0.0204748 -0.0205123 -0.0205448 -0.0205724 -0.0205949 -0.0206125 -0.020625 -0.0206325 -0.000329118 -0.000658144 -0.000986986 -0.00131555 -0.00164375 -0.00197149 -0.00229869 -0.00262524 -0.00295106 -0.00327607 -0.00360018 -0.00392329 -0.00424532 -0.00456619 -0.00488581 